# vtk DataFile Version 2.0
VTK from Matlab
ASCII
DATASET STRUCTURED_GRID
DIMENSIONS 41 41 1
POINTS 1681 float
0.00 0.00 1.00 0.37 0.00 1.00 0.75 0.00 1.00 1.12 0.00 1.00 1.50 0.00 1.00 1.87 0.00 1.00 2.25 0.00 1.00 2.62 0.00 1.00 3.00 0.00 1.00 3.37 0.00 1.00 3.75 0.00 1.00 4.13 0.00 1.00 4.50 0.00 1.00 4.88 0.00 1.00 5.25 0.00 1.00 5.63 0.00 1.00 6.00 0.00 1.00 6.38 0.00 1.00 6.75 0.00 1.00 7.12 0.00 1.00 7.50 0.00 1.00 7.88 0.00 1.00 8.25 0.00 1.00 8.63 0.00 1.00 9.00 0.00 1.00 9.38 0.00 1.00 9.75 0.00 1.00 10.13 0.00 1.00 10.50 0.00 1.00 10.88 0.00 1.00 11.25 0.00 1.00 11.63 0.00 1.00 12.00 0.00 1.00 12.37 0.00 1.00 12.75 0.00 1.00 13.13 0.00 1.00 13.50 0.00 1.00 13.88 0.00 1.00 14.25 0.00 1.00 14.63 0.00 1.00 15.00 0.00 1.00 0.00 0.37 1.00 0.37 0.37 1.00 0.75 0.37 1.00 1.12 0.37 1.00 1.50 0.37 1.00 1.87 0.37 1.00 2.25 0.37 1.00 2.62 0.37 1.00 3.00 0.37 1.00 3.37 0.37 1.00 3.75 0.37 1.00 4.13 0.37 1.00 4.50 0.37 1.00 4.88 0.37 1.00 5.25 0.37 1.00 5.63 0.37 1.00 6.00 0.37 1.00 6.38 0.37 1.00 6.75 0.37 1.00 7.12 0.37 1.00 7.50 0.37 1.00 7.88 0.37 1.00 8.25 0.37 1.00 8.63 0.37 1.00 9.00 0.37 1.00 9.38 0.37 1.00 9.75 0.37 1.00 10.13 0.37 1.00 10.50 0.37 1.00 10.88 0.37 1.00 11.25 0.37 1.00 11.63 0.37 1.00 12.00 0.37 1.00 12.37 0.37 1.00 12.75 0.37 1.00 13.13 0.37 1.00 13.50 0.37 1.00 13.88 0.37 1.00 14.25 0.37 1.00 14.63 0.37 1.00 15.00 0.37 1.00 0.00 0.75 1.00 0.37 0.75 1.00 0.75 0.75 1.00 1.12 0.75 1.00 1.50 0.75 1.00 1.87 0.75 1.00 2.25 0.75 1.00 2.62 0.75 1.00 3.00 0.75 1.00 3.37 0.75 1.00 3.75 0.75 1.00 4.13 0.75 1.00 4.50 0.75 1.00 4.88 0.75 1.00 5.25 0.75 1.00 5.63 0.75 1.00 6.00 0.75 1.00 6.38 0.75 1.00 6.75 0.75 1.00 7.12 0.75 1.00 7.50 0.75 1.00 7.88 0.75 1.00 8.25 0.75 1.00 8.63 0.75 1.00 9.00 0.75 1.00 9.38 0.75 1.00 9.75 0.75 1.00 10.13 0.75 1.00 10.50 0.75 1.00 10.88 0.75 1.00 11.25 0.75 1.00 11.63 0.75 1.00 12.00 0.75 1.00 12.37 0.75 1.00 12.75 0.75 1.00 13.13 0.75 1.00 13.50 0.75 1.00 13.88 0.75 1.00 14.25 0.75 1.00 14.63 0.75 1.00 15.00 0.75 1.00 0.00 1.12 1.00 0.37 1.12 1.00 0.75 1.12 1.00 1.12 1.12 1.00 1.50 1.12 1.00 1.87 1.12 1.00 2.25 1.12 1.00 2.62 1.12 1.00 3.00 1.12 1.00 3.38 1.12 1.00 3.75 1.12 1.00 4.13 1.12 1.00 4.50 1.12 1.00 4.88 1.12 1.00 5.25 1.12 1.00 5.63 1.13 1.00 6.00 1.12 1.00 6.38 1.12 1.00 6.75 1.12 1.00 7.12 1.12 1.00 7.50 1.12 1.00 7.88 1.12 1.00 8.25 1.12 1.00 8.63 1.12 1.00 9.00 1.12 1.00 9.38 1.12 1.00 9.75 1.12 1.00 10.13 1.12 1.00 10.50 1.12 1.00 10.88 1.12 1.00 11.25 1.12 1.00 11.63 1.12 1.00 12.00 1.12 1.00 12.37 1.12 1.00 12.75 1.12 1.00 13.13 1.12 1.00 13.50 1.12 1.00 13.88 1.12 1.00 14.25 1.12 1.00 14.63 1.12 1.00 15.00 1.12 1.00 0.00 1.50 1.00 0.37 1.50 1.00 0.75 1.50 1.00 1.12 1.50 1.00 1.50 1.50 1.00 1.87 1.50 1.00 2.25 1.50 1.00 2.62 1.50 1.00 3.00 1.50 1.00 3.37 1.50 1.00 3.75 1.50 1.00 4.13 1.50 1.00 4.50 1.50 1.00 4.88 1.50 1.00 5.25 1.50 1.00 5.63 1.50 1.00 6.00 1.50 1.00 6.38 1.50 1.00 6.75 1.50 1.00 7.12 1.50 1.00 7.50 1.50 1.00 7.88 1.50 1.00 8.25 1.50 1.00 8.63 1.50 1.00 9.00 1.50 1.00 9.38 1.50 1.00 9.75 1.50 1.00 10.13 1.50 1.00 10.50 1.50 1.00 10.88 1.50 1.00 11.25 1.50 1.00 11.63 1.50 1.00 12.00 1.50 1.00 12.37 1.50 1.00 12.75 1.50 1.00 13.13 1.50 1.00 13.50 1.50 1.00 13.88 1.50 1.00 14.25 1.50 1.00 14.63 1.50 1.00 15.00 1.50 1.00 0.00 1.87 1.00 0.37 1.87 1.00 0.75 1.87 1.00 1.12 1.87 1.00 1.50 1.87 1.00 1.87 1.87 1.00 2.25 1.87 1.00 2.62 1.87 1.00 3.00 1.87 1.00 3.37 1.87 1.00 3.75 1.87 1.00 4.13 1.87 1.00 4.50 1.87 1.00 4.88 1.87 1.00 5.25 1.87 1.00 5.63 1.87 1.00 6.00 1.87 1.00 6.38 1.87 1.00 6.75 1.87 1.00 7.12 1.87 1.00 7.50 1.87 1.00 7.88 1.87 1.00 8.25 1.87 1.00 8.63 1.87 1.00 9.00 1.87 1.00 9.38 1.87 1.00 9.75 1.87 1.00 10.13 1.87 1.00 10.50 1.87 1.00 10.88 1.87 1.00 11.25 1.87 1.00 11.63 1.87 1.00 12.00 1.87 1.00 12.37 1.87 1.00 12.75 1.87 1.00 13.13 1.87 1.00 13.50 1.87 1.00 13.87 1.87 1.00 14.25 1.87 1.00 14.62 1.87 1.00 15.00 1.87 1.00 0.00 2.25 1.00 0.37 2.25 1.00 0.75 2.25 1.00 1.12 2.25 1.00 1.50 2.25 1.00 1.87 2.25 1.00 2.25 2.25 1.00 2.62 2.25 1.00 3.00 2.25 1.00 3.37 2.25 1.00 3.75 2.25 1.00 4.12 2.25 1.00 4.50 2.25 1.00 4.87 2.25 1.00 5.25 2.25 1.00 5.62 2.25 1.00 6.00 2.25 1.00 6.37 2.25 1.00 6.75 2.25 1.00 7.12 2.25 1.00 7.50 2.25 1.00 7.87 2.25 1.00 8.25 2.25 1.00 8.62 2.25 1.00 9.00 2.25 1.00 9.37 2.25 1.00 9.75 2.25 1.00 10.12 2.25 1.00 10.50 2.25 1.00 10.88 2.25 1.00 11.25 2.25 1.00 11.63 2.25 1.00 12.00 2.25 1.00 12.37 2.25 1.00 12.75 2.25 1.00 13.12 2.25 1.00 13.50 2.25 1.00 13.87 2.25 1.00 14.25 2.25 1.00 14.62 2.25 1.00 15.00 2.25 1.00 0.00 2.62 1.00 0.37 2.62 1.00 0.75 2.62 1.00 1.12 2.62 1.00 1.50 2.62 1.00 1.87 2.62 1.00 2.25 2.62 1.00 2.62 2.62 1.00 3.00 2.62 1.00 3.37 2.62 1.00 3.75 2.62 1.00 4.12 2.62 1.00 4.50 2.62 1.00 4.87 2.62 1.00 5.25 2.62 1.00 5.63 2.63 1.00 6.00 2.62 1.00 6.37 2.62 1.00 6.75 2.62 1.00 7.12 2.62 1.00 7.50 2.62 1.00 7.87 2.62 1.00 8.25 2.62 1.00 8.62 2.62 1.00 9.00 2.62 1.00 9.37 2.62 1.00 9.75 2.62 1.00 10.13 2.62 1.00 10.50 2.62 1.00 10.88 2.62 1.00 11.25 2.62 1.00 11.63 2.62 1.00 12.00 2.62 1.00 12.37 2.62 1.00 12.75 2.62 1.00 13.13 2.62 1.00 13.50 2.62 1.00 13.87 2.62 1.00 14.25 2.62 1.00 14.62 2.62 1.00 15.00 2.62 1.00 0.00 3.00 1.00 0.37 3.00 1.00 0.75 3.00 1.00 1.12 3.00 1.00 1.50 3.00 1.00 1.87 3.00 1.00 2.25 3.00 1.00 2.62 3.00 1.00 3.00 3.00 1.00 3.37 3.00 1.00 3.75 3.00 1.00 4.12 3.00 1.00 4.50 3.00 1.00 4.87 3.00 1.00 5.25 3.00 1.00 5.62 3.00 1.00 6.00 3.00 1.00 6.37 3.00 1.00 6.75 3.00 1.00 7.12 3.00 1.00 7.50 3.00 1.00 7.87 3.00 1.00 8.25 3.00 1.00 8.62 3.00 1.00 9.00 3.00 1.00 9.37 3.00 1.00 9.75 3.00 1.00 10.13 3.00 1.00 10.50 3.00 1.00 10.88 3.00 1.00 11.25 3.00 1.00 11.63 3.00 1.00 12.00 3.00 1.00 12.37 3.00 1.00 12.75 3.00 1.00 13.12 3.00 1.00 13.50 3.00 1.00 13.87 3.00 1.00 14.25 3.00 1.00 14.62 3.00 1.00 15.00 3.00 1.00 0.00 3.37 1.00 0.37 3.37 1.00 0.75 3.37 1.00 1.12 3.37 1.00 1.50 3.37 1.00 1.87 3.37 1.00 2.25 3.37 1.00 2.62 3.37 1.00 3.00 3.37 1.00 3.37 3.37 1.00 3.75 3.37 1.00 4.12 3.38 1.00 4.50 3.37 1.00 4.87 3.37 1.00 5.25 3.37 1.00 5.62 3.37 1.00 6.00 3.37 1.00 6.37 3.37 1.00 6.75 3.37 1.00 7.12 3.37 1.00 7.50 3.37 1.00 7.87 3.37 1.00 8.25 3.37 1.00 8.63 3.37 1.00 9.00 3.37 1.00 9.38 3.37 1.00 9.75 3.37 1.00 10.13 3.37 1.00 10.50 3.37 1.00 10.88 3.37 1.00 11.25 3.38 1.00 11.63 3.37 1.00 12.00 3.37 1.00 12.37 3.37 1.00 12.75 3.37 1.00 13.12 3.37 1.00 13.50 3.37 1.00 13.87 3.37 1.00 14.25 3.37 1.00 14.62 3.38 1.00 15.00 3.37 1.00 0.00 3.75 1.00 0.37 3.75 1.00 0.75 3.75 1.00 1.12 3.75 1.00 1.50 3.75 1.00 1.87 3.75 1.00 2.25 3.75 1.00 2.62 3.75 1.00 3.00 3.75 1.00 3.37 3.75 1.00 3.75 3.75 1.00 4.13 3.75 1.00 4.50 3.75 1.00 4.88 3.75 1.00 5.25 3.75 1.00 5.63 3.75 1.00 6.00 3.75 1.00 6.38 3.75 1.00 6.75 3.75 1.00 7.12 3.75 1.00 7.50 3.75 1.00 7.88 3.75 1.00 8.25 3.75 1.00 8.63 3.75 1.00 9.00 3.75 1.00 9.38 3.75 1.00 9.75 3.75 1.00 10.13 3.75 1.00 10.50 3.75 1.00 10.88 3.75 1.00 11.25 3.75 1.00 11.63 3.75 1.00 12.00 3.75 1.00 12.37 3.75 1.00 12.75 3.75 1.00 13.13 3.75 1.00 13.50 3.75 1.00 13.87 3.75 1.00 14.25 3.75 1.00 14.62 3.75 1.00 15.00 3.75 1.00 0.00 4.13 1.00 0.37 4.13 1.00 0.75 4.13 1.00 1.12 4.13 1.00 1.50 4.13 1.00 1.87 4.13 1.00 2.25 4.13 1.00 2.62 4.13 1.00 3.00 4.13 1.00 3.38 4.13 1.00 3.75 4.13 1.00 4.13 4.13 1.00 4.50 4.13 1.00 4.88 4.13 1.00 5.25 4.13 1.00 5.63 4.13 1.00 6.00 4.13 1.00 6.38 4.13 1.00 6.75 4.13 1.00 7.13 4.13 1.00 7.50 4.13 1.00 7.88 4.13 1.00 8.25 4.13 1.00 8.63 4.13 1.00 9.00 4.13 1.00 9.38 4.13 1.00 9.75 4.13 1.00 10.13 4.13 1.00 10.50 4.13 1.00 10.88 4.13 1.00 11.25 4.13 1.00 11.63 4.13 1.00 12.00 4.13 1.00 12.38 4.13 1.00 12.75 4.13 1.00 13.13 4.13 1.00 13.50 4.13 1.00 13.88 4.13 1.00 14.25 4.13 1.00 14.63 4.13 1.00 15.00 4.13 1.00 0.00 4.50 1.00 0.37 4.50 1.00 0.75 4.50 1.00 1.12 4.50 1.00 1.50 4.50 1.00 1.87 4.50 1.00 2.25 4.50 1.00 2.62 4.50 1.00 3.00 4.50 1.00 3.37 4.50 1.00 3.75 4.50 1.00 4.13 4.50 1.00 4.50 4.50 1.00 4.88 4.50 1.00 5.25 4.50 1.00 5.63 4.50 1.00 6.00 4.50 1.00 6.38 4.50 1.00 6.75 4.50 1.00 7.12 4.50 1.00 7.50 4.50 1.00 7.88 4.50 1.00 8.25 4.50 1.00 8.63 4.50 1.00 9.00 4.50 1.00 9.38 4.50 1.00 9.75 4.50 1.00 10.13 4.50 1.00 10.50 4.50 1.00 10.88 4.50 1.00 11.25 4.50 1.00 11.63 4.50 1.00 12.00 4.50 1.00 12.37 4.50 1.00 12.75 4.50 1.00 13.13 4.50 1.00 13.50 4.50 1.00 13.88 4.50 1.00 14.25 4.50 1.00 14.63 4.50 1.00 15.00 4.50 1.00 0.00 4.88 1.00 0.37 4.88 1.00 0.75 4.88 1.00 1.12 4.88 1.00 1.50 4.88 1.00 1.87 4.88 1.00 2.25 4.88 1.00 2.62 4.88 1.00 3.00 4.88 1.00 3.37 4.88 1.00 3.75 4.88 1.00 4.13 4.88 1.00 4.50 4.88 1.00 4.88 4.88 1.00 5.25 4.88 1.00 5.63 4.88 1.00 6.00 4.88 1.00 6.38 4.88 1.00 6.75 4.88 1.00 7.12 4.88 1.00 7.50 4.88 1.00 7.88 4.88 1.00 8.25 4.88 1.00 8.63 4.88 1.00 9.00 4.88 1.00 9.38 4.88 1.00 9.75 4.88 1.00 10.13 4.88 1.00 10.50 4.88 1.00 10.88 4.88 1.00 11.25 4.88 1.00 11.63 4.88 1.00 12.00 4.88 1.00 12.38 4.88 1.00 12.75 4.88 1.00 13.13 4.88 1.00 13.50 4.88 1.00 13.88 4.88 1.00 14.25 4.88 1.00 14.63 4.88 1.00 15.00 4.88 1.00 0.00 5.25 1.00 0.37 5.25 1.00 0.75 5.25 1.00 1.12 5.25 1.00 1.50 5.25 1.00 1.87 5.25 1.00 2.25 5.25 1.00 2.62 5.25 1.00 3.00 5.25 1.00 3.37 5.25 1.00 3.75 5.25 1.00 4.13 5.25 1.00 4.50 5.25 1.00 4.88 5.25 1.00 5.25 5.25 1.00 5.63 5.25 1.00 6.00 5.25 1.00 6.38 5.25 1.00 6.75 5.25 1.00 7.12 5.25 1.00 7.50 5.25 1.00 7.88 5.25 1.00 8.25 5.25 1.00 8.63 5.25 1.00 9.00 5.25 1.00 9.38 5.25 1.00 9.75 5.25 1.00 10.13 5.25 1.00 10.50 5.25 1.00 10.88 5.25 1.00 11.25 5.25 1.00 11.63 5.25 1.00 12.00 5.25 1.00 12.38 5.25 1.00 12.75 5.25 1.00 13.13 5.25 1.00 13.50 5.25 1.00 13.88 5.25 1.00 14.25 5.25 1.00 14.63 5.25 1.00 15.00 5.25 1.00 0.00 5.63 1.00 0.37 5.63 1.00 0.75 5.63 1.00 1.12 5.63 1.00 1.50 5.63 1.00 1.87 5.63 1.00 2.25 5.63 1.00 2.62 5.63 1.00 3.00 5.63 1.00 3.38 5.63 1.00 3.75 5.63 1.00 4.13 5.63 1.00 4.50 5.63 1.00 4.88 5.63 1.00 5.25 5.63 1.00 5.63 5.63 1.00 6.00 5.63 1.00 6.38 5.63 1.00 6.75 5.63 1.00 7.13 5.63 1.00 7.50 5.63 1.00 7.88 5.63 1.00 8.25 5.63 1.00 8.63 5.63 1.00 9.00 5.63 1.00 9.38 5.63 1.00 9.75 5.63 1.00 10.13 5.63 1.00 10.50 5.63 1.00 10.88 5.63 1.00 11
[...]
POINT_DATA 1681
SCALARS thickness float
LOOKUP_TABLE default
35.92 34.34 33.89 32.83 32.70 33.02 33.14 33.74 33.62 34.08 33.11 32.15 31.02 30.99 32.90 37.38 45.60 49.70 51.89 52.57 52.57 51.89 49.70 45.60 37.38 32.90 30.99 31.02 32.15 33.11 34.08 33.62 33.74 33.14 33.02 32.70 32.83 33.89 34.34 35.92 34.34 33.75 32.27 31.86 31.10 31.48 31.91 31.80 32.02 31.30 29.86 29.76 29.07 29.83 32.20 36.34 44.41 48.94 51.48 52.76 52.76 51.48 48.94 44.41 36.34 32.20 29.83 29.07 29.76 29.86 31.30 32.02 31.80 31.91 31.48 31.10 31.86 32.27 33.75 34.34 33.89 32.27 31.35 29.90 28.17 30.16 30.01 29.77 29.34 25.39 25.62 26.25 27.42 28.86 32.00 35.54 42.93 47.34 50.29 51.85 51.85 50.29 47.34 42.93 35.54 32.00 28.86 27.42 26.25 25.62 25.39 29.34 29.77 30.01 30.16 28.17 29.90 31.35 32.27 33.89 32.83 31.86 29.90 27.90 25.24 28.72 22.40 20.89 20.83 20.98 22.00 23.93 25.43 28.09 30.85 34.20 36.35 46.69 50.16 52.11 52.11 50.16 46.69 36.35 34.20 30.85 28.09 25.43 23.93 22.00 20.98 20.83 20.89 22.40 28.72 25.24 27.90 29.90 31.86 32.83 32.70 31.10 28.17 25.24 22.32 20.03 18.10 16.88 16.41 17.58 19.51 21.82 24.77 27.05 29.94 33.03 37.04 45.36 49.93 52.52 52.52 49.93 45.36 37.04 33.03 29.94 27.05 24.77 21.82 19.51 17.58 16.41 16.88 18.10 20.03 22.32 25.24 28.17 31.10 32.70 33.02 31.48 30.16 28.72 20.03 17.40 15.94 14.60 15.37 16.79 18.96 22.21 24.17 26.74 29.40 31.98 36.22 44.32 49.79 53.17 53.17 49.79 44.32 36.22 31.98 29.40 26.74 24.17 22.21 18.96 16.79 15.37 14.60 15.94 17.40 20.03 28.72 30.16 31.48 33.02 33.14 31.91 30.01 22.40 18.10 15.94 14.60 14.74 15.63 17.80 20.23 22.45 24.95 26.19 28.11 30.80 35.02 43.69 50.35 54.31 54.31 50.35 43.69 35.02 30.80 28.11 26.19 24.95 22.45 20.23 17.80 15.63 14.74 14.60 15.94 18.10 22.40 30.01 31.91 33.14 33.74 31.80 29.77 20.89 16.88 14.60 14.74 14.87 16.87 18.87 20.85 23.56 24.60 26.09 27.38 29.49 34.10 42.65 49.79 54.33 54.33 49.79 42.65 34.10 29.49 27.38 26.09 24.60 23.56 20.85 18.87 16.87 14.87 14.74 14.60 16.88 20.89 29.77 31.80 33.74 33.62 32.02 29.34 20.83 16.41 15.37 15.63 16.87 18.58 20.40 22.38 28.77 25.67 26.21 26.82 29.18 33.39 42.06 50.12 54.89 54.89 50.12 42.06 33.39 29.18 26.82 26.21 25.67 28.77 22.38 20.40 18.58 16.87 15.63 15.37 16.41 20.83 29.34 32.02 33.62 34.08 31.30 25.39 20.98 17.58 16.79 17.80 18.87 20.40 28.23 28.84 29.91 30.01 30.19 27.90 28.75 33.43 41.41 48.94 53.90 53.90 48.94 41.41 33.43 28.75 27.90 30.19 30.01 29.91 28.84 28.23 20.40 18.87 17.80 16.79 17.58 20.98 25.39 31.30 34.08 33.11 29.86 25.62 22.00 19.51 18.96 20.23 20.85 22.38 28.84 29.93 30.44 30.72 31.18 30.99 30.09 33.13 39.75 47.30 51.62 51.62 47.30 39.75 33.13 30.09 30.99 31.18 30.72 30.44 29.93 28.84 22.38 20.85 20.23 18.96 19.51 22.00 25.62 29.86 33.11 32.15 29.76 26.25 23.93 21.82 22.21 22.45 23.56 28.77 29.91 30.44 31.13 31.80 32.30 32.42 32.35 33.75 40.24 47.30 52.56 52.56 47.30 40.24 33.75 32.35 32.42 32.30 31.80 31.13 30.44 29.91 28.77 23.56 22.45 22.21 21.82 23.93 26.25 29.76 32.15 31.02 29.07 27.42 25.43 24.77 24.17 24.95 24.60 25.67 30.01 30.72 31.80 33.22 33.96 33.63 33.78 34.68 42.06 51.26 56.45 56.45 51.26 42.06 34.68 33.78 33.63 33.96 33.22 31.80 30.72 30.01 25.67 24.60 24.95 24.17 24.77 25.43 27.42 29.07 31.02 30.99 29.83 28.86 28.09 27.05 26.74 26.19 26.09 26.21 30.19 31.18 32.30 33.96 34.66 35.54 35.34 37.98 48.00 53.83 57.97 57.97 53.83 48.00 37.98 35.34 35.54 34.66 33.96 32.30 31.18 30.19 26.21 26.09 26.19 26.74 27.05 28.09 28.86 29.83 30.99 32.90 32.20 32.00 30.85 29.94 29.40 28.11 27.38 26.82 27.90 30.99 32.42 33.63 35.54 36.13 38.93 46.98 47.60 44.74 36.41 36.41 44.74 47.60 46.98 38.93 36.13 35.54 33.63 32.42 30.99 27.90 26.82 27.38 28.11 29.40 29.94 30.85 32.00 32.20 32.90 37.38 36.34 35.54 34.20 33.03 31.98 30.80 29.49 29.18 28.75 30.09 32.35 33.78 35.34 38.93 41.50 42.41 30.28 21.78 17.21 17.21 21.78 30.28 42.41 41.50 38.93 35.34 33.78 32.35 30.09 28.75 29.18 29.49 30.80 31.98 33.03 34.20 35.54 36.34 37.38 45.60 44.41 42.93 36.35 37.04 36.22 35.02 34.10 33.39 33.43 33.13 33.75 34.68 37.98 46.98 42.41 27.57 17.26 12.01 11.85 11.85 12.01 17.26 27.57 42.41 46.98 37.98 34.68 33.75 33.13 33.43 33.39 34.10 35.02 36.22 37.04 36.35 42.93 44.41 45.60 49.70 48.94 47.34 46.69 45.36 44.32 43.69 42.65 42.06 41.41 39.75 40.24 42.06 48.00 47.60 30.28 17.26 17.99 28.51 41.01 41.01 28.51 17.99 17.26 30.28 47.60 48.00 42.06 40.24 39.75 41.41 42.06 42.65 43.69 44.32 45.36 46.69 47.34 48.94 49.70 51.89 51.48 50.29 50.16 49.93 49.79 50.35 49.79 50.12 48.94 47.30 47.30 51.26 53.83 44.74 21.78 12.01 28.51 54.54 77.69 77.69 54.54 28.51 12.01 21.78 44.74 53.83 51.26 47.30 47.30 48.94 50.12 49.79 50.35 49.79 49.93 50.16 50.29 51.48 51.89 52.57 52.76 51.85 52.11 52.52 53.17 54.31 54.33 54.89 53.90 51.62 52.56 56.45 57.97 36.41 17.21 11.85 41.01 77.69 100.00 100.00 77.69 41.01 11.85 17.21 36.41 57.97 56.45 52.56 51.62 53.90 54.89 54.33 54.31 53.17 52.52 52.11 51.85 52.76 52.57 52.57 52.76 51.85 52.11 52.52 53.17 54.31 54.33 54.89 53.90 51.62 52.56 56.45 57.97 36.41 17.21 11.85 41.01 77.69 100.00 100.00 77.69 41.01 11.85 17.21 36.41 57.97 56.45 52.56 51.62 53.90 54.89 54.33 54.31 53.17 52.52 52.11 51.85 52.76 52.57 51.89 51.48 50.29 50.16 49.93 49.79 50.35 49.79 50.12 48.94 47.30 47.30 51.26 53.83 44.74 21.78 12.01 28.51 54.54 77.69 77.69 54.54 28.51 12.01 21.78 44.74 53.83 51.26 47.30 47.30 48.94 50.12 49.79 50.35 49.79 49.93 50.16 50.29 51.48 51.89 49.70 48.94 47.34 46.69 45.36 44.32 43.69 42.65 42.06 41.41 39.75 40.24 42.06 48.00 47.60 30.28 17.26 17.99 28.51 41.01 41.01 28.51 17.99 17.26 30.28 47.60 48.00 42.06 40.24 39.75 41.41 42.06 42.65 43.69 44.32 45.36 46.69 47.34 48.94 49.70 45.60 44.41 42.93 36.35 37.04 36.22 35.02 34.10 33.39 33.43 33.13 33.75 34.68 37.98 46.98 42.41 27.57 17.26 12.01 11.85 11.85 12.01 17.26 27.57 42.41 46.98 37.98 34.68 33.75 33.13 33.43 33.39 34.10 35.02 36.22 37.04 36.35 42.93 44.41 45.60 37.38 36.34 35.54 34.20 33.03 31.98 30.80 29.49 29.18 28.75 30.09 32.35 33.78 35.34 38.93 41.50 42.41 30.28 21.78 17.21 17.21 21.78 30.28 42.41 41.50 38.93 35.34 33.78 32.35 30.09 28.75 29.18 29.49 30.80 31.98 33.03 34.20 35.54 36.34 37.38 32.90 32.20 32.00 30.85 29.94 29.40 28.11 27.38 26.82 27.90 30.99 32.42 33.63 35.54 36.13 38.93 46.98 47.60 44.74 36.41 36.41 44.74 47.60 46.98 38.93 36.13 35.54 33.63 32.42 30.99 27.90 26.82 27.38 28.11 29.40 29.94 30.85 32.00 32.20 32.90 30.99 29.83 28.86 28.09 27.05 26.74 26.19 26.09 26.21 30.19 31.18 32.30 33.96 34.66 35.54 35.34 37.98 48.00 53.83 57.97 57.97 53.83 48.00 37.98 35.34 35.54 34.66 33.96 32.30 31.18 30.19 26.21 26.09 26.19 26.74 27.05 28.09 28.86 29.83 30.99 31.02 29.07 27.42 25.43 24.77 24.17 24.95 24.60 25.67 30.01 30.72 31.80 33.22 33.96 33.63 33.78 34.68 42.06 51.26 56.45 56.45 51.26 42.06 34.68 33.78 33.63 33.96 33.22 31.80 30.72 30.01 25.67 24.60 24.95 24.17 24.77 25.43 27.42 29.07 31.02 32.15 29.76 26.25 23.93 21.82 22.21 22.45 23.56 28.77 29.91 30.44 31.13 31.80 32.30 32.42 32.35 33.75 40.24 47.30 52.56 52.56 47.30 40.24 33.75 32.35 32.42 32.30 31.80 31.13 30.44 29.91 28.77 23.56 22.45 22.21 21.82 23.93 26.25 29.76 32.15 33.11 29.86 25.62 22.00 19.51 18.96 20.23 20.85 22.38 28.84 29.93 30.44 30.72 31.18 30.99 30.09 33.13 39.75 47.30 51.62 51.62 47.30 39.75 33.13 30.09 30.99 31.18 30.72 30.44 29.93 28.84 22.38 20.85 20.23 18.96 19.51 22.00 25.62 29.86 33.11 34.08 31.30 25.39 20.98 17.58 16.79 17.80 18.87 20.40 28.23 28.84 29.91 30.01 30.19 27.90 28.75 33.43 41.41 48.94 53.90 53.90 48.94 41.41 33.43 28.75 27.90 30.19 30.01 29.91 28.84 28.23 20.40 18.87 17.80 16.79 17.58 20.98 25.39 31.30 34.08 33.62 32.02 29.34 20.83 16.41 15.37 15.63 16.87 18.58 20.40 22.38 28.77 25.67 26.21 26.82 29.18 33.39 42.06 50.12 54.89 54.89 50.12 42.06 33.39 29.18 26.82 26.21 25.67 28.77 22.38 20.40 18.58 16.87 15.63 15.37 16.41 20.83 29.34 32.02 33.62 33.74 31.80 29.77 20.89 16.88 14.60 14.74 14.87 16.87 18.87 20.85 23.56 24.60 26.09 27.38 29.49 34.10 42.65 49.79 54.33 54.33 49.79 42.65 34.10 29.49 27.38 26.09 24.60 23.56 20.85 18.87 16.87 14.87 14.74 14.60 16.88 20.89 29.77 31.80 33.74 33.14 31.91 30.01 22.40 18.10 15.94 14.60 14.74 15.63 17.80 20.23 22.45 24.95 26.19 28.11 30.80 35.02 43.69 50.35 54.31 54.31 50.35 43.69 35.02 30.80 28.11 26.19 24.95 22.45 20.23 17.80 15.63 14.74 14.60 15.94 18.10 22.40 30.01 31.91 33.14 33.02 31.48 30.16 28.72 20.03 17.40 15.94 14.60 15.37 16.79 18.96 22.21 24.17 26.74 29.40 31.98 36.22 44.32 49.79 53.17 53.17 49.79 44.32 36.22 31.98 29.40 26.74 24.17 22.21 18.96 16.79 15.37 14.60 15.94 17.40 20.03 28.72 30.16 31.48 33.02 32.70 31.10 28.17 25.24 22.32 20.03 18.10 16.88 16.41 17.58 19.51 21.82 24.77 27.05 29.94 33.03 37.04 45.36 49.93 52.52 52.52 49.93 45.36 37.04 33.03 29.94 27.05 24.77 21.82 19.51 17.58 16.41 16.88 18.10 20.03 22.32 25.24 28.17 31.10 32.70 32.83 31.86 29.90 27.90 25.24 28.72 22.40 20.89 20.83 20.98 22.00 23.93 25.43 28.09 30.85 34.20 36.35 46.69 50.16 52.11 52.11 50.16 46.69 36.35 34.20 30.85 28.09 25.43 23.93 22.00 20.98 20.83 20.89 22.40 28.72 25.24 27.90 29.90 31.86 32.83 33.89 32.27 31.35 29.90 28.17 30.16 30.01 29.77 29.34 25.39 25.62 26.25 27.42 28.86 32.00 35.54 42.93 47.34 50.29 51.85 51.85 50.29 47.34 42.93 35.54 32.00 28.86 27.42 26.25 25.62 25.39 29.34 29.77 30.01 30.16 28.17 29.90 31.35 32.27 33.89 34.34 33.75 32.27 31.86 31.10 31.48 31.91 31.80 32.02 31.30 29.86 29.76 29.07 29.83 32.20 36.34 44.41 48.94 51.48 52.76 52.76 51.48 48.94 44.41 36.34 32.20 29.83 29.07 29.76 29.86 31.30 32.02 31.80 31.91 31.48 31.10 31.86 32.27 33.75 34.34 35.92 34.34 33.89 32.83 32.70 33.02 33.14 33.74 33.62 34.08 33.11 32.15 31.02 30.99 32.90 37.38 45.60 49.70 51.89 52.57 52.57 51.89 49.70 45.60 37.38 32.90 30.99 31.02 32.15 33.11 34.08 33.62 33.74 33.14 33.02 32.70 32.83 33.89 34.34 35.92 